 Gaussian 03, Revision D.01,
 Gaussian 03:  AM64L-G09RevD.01 24-Apr-2013

 ----------------------------------------------------------------------
 #p opt=tight freq=raman rb3lyp/6-31+g(d) guess=read geom=connectivity
 int=ultrafine
 ----------------------------------------------------------------------

 -------------------
 Title Card Required
 -------------------
 Symbolic Z-matrix:
 Charge =  0 Multiplicity = 1

 SCF Done:  E(RB3LYP) =  -1561.36121042     A.U. after   14 cycles
 SCF Done:  E(RB3LYP) =  -1561.36574324     A.U. after   15 cycles
 SCF Done:  E(RB3LYP) =  -1561.36578654     A.U. after   15 cycles
 SCF Done:  E(RB3LYP) =  -1561.36566461     A.U. after   13 cycles
 SCF Done:  E(RB3LYP) =  -1561.36602075     A.U. after    9 cycles
 SCF Done:  E(RB3LYP) =  -1561.36622776     A.U. after   12 cycles
 SCF Done:  E(RB3LYP) =  -1561.36624053     A.U. after   11 cycles
 SCF Done:  E(RB3LYP) =  -1561.36624981     A.U. after   12 cycles
 SCF Done:  E(RB3LYP) =  -1561.36625470     A.U. after   12 cycles
 SCF Done:  E(RB3LYP) =  -1561.36625555     A.U. after   11 cycles
 SCF Done:  E(RB3LYP) =  -1561.36625554     A.U. after   10 cycles
 SCF Done:  E(RB3LYP) =  -1561.36625554     A.U. after    8 cycles
 SCF Done:  E(RB3LYP) =  -1561.36625554     A.U. after    8 cycles
 SCF Done:  E(RB3LYP) =  -1561.36625555     A.U. after    7 cycles
 Optimization completed.
    -- Stationary point found.
 Normal termination of Gaussian 03 at Tue Feb 24 08:51:54 2015.

 ---------------------------------------------------------------------
 #P Geom=AllCheck Guess=TCheck SCRF=Check GenChk RB3LYP/6-31+G(d) Freq
 ---------------------------------------------------------------------

 Structure from the checkpoint file:  "Ex_Cis.chk"
 -------------------
 Title Card Required
 -------------------
 Charge =  0 Multiplicity = 1

                         Standard orientation:
 ---------------------------------------------------------------------
 Center     Atomic      Atomic             Coordinates (Angstroms)
 Number     Number       Type             X           Y           Z
 ---------------------------------------------------------------------
      1          6           0        0.006941    3.041553    0.617933
      2          6           0        0.074301    3.149083   -0.773314
      3          6           0        0.145727    4.391774   -1.401131
      4          6           0        0.150703    5.535373   -0.595267
      5          6           0        0.082419    5.440070    0.803222
      6          6           0        0.006952    4.189244    1.415798
      7          6           0       -0.082419    1.648782    1.119779
      8          6           0       -0.000255    0.682601   -0.052011
      9          1           0        0.196685    4.475174   -2.483149
     10          1           0        0.207877    6.513683   -1.065483
     11          1           0        0.087047    6.342987    1.406992
     12          1           0       -0.051630    4.083046    2.495521
     13          6           0        0.000255   -0.682601   -0.052011
     14          6           0        0.082419   -1.648782    1.119779
     15          6           0       -0.006941   -3.041553    0.617933
     16          6           0       -0.074301   -3.149083   -0.773314
     17          6           0       -0.006952   -4.189244    1.415798
     18          6           0       -0.145727   -4.391774   -1.401131
     19          6           0       -0.082419   -5.440070    0.803222
     20          1           0        0.051630   -4.083046    2.495521
     21          6           0       -0.150703   -5.535373   -0.595267
     22          1           0       -0.196685   -4.475174   -2.483149
     23          1           0       -0.087047   -6.342987    1.406992
     24          1           0       -0.207877   -6.513683   -1.065483
     25         16           0        0.053276    1.570646   -1.591709
     26         16           0       -0.053276   -1.570646   -1.591709
     27          8           0        0.240604   -1.345965    2.287927
     28          8           0       -0.240604    1.345965    2.287927
 ---------------------------------------------------------------------

 SCF Done:  E(RB3LYP) =  -1561.36625555     A.U. after    1 cycles

 The electronic state is 1-A.
 Alpha  occ. eigenvalues --  -88.92881 -88.92881 -19.15575 -19.15575 -10.29892
 Alpha  occ. eigenvalues --  -10.29892 -10.26506 -10.26436 -10.25349 -10.25349
 Alpha  occ. eigenvalues --  -10.22515 -10.22515 -10.22416 -10.22416 -10.22110
 Alpha  occ. eigenvalues --  -10.22110 -10.21938 -10.21938 -10.21603 -10.21603
 Alpha  occ. eigenvalues --   -7.98806  -7.98806  -5.95281  -5.95281  -5.94934
 Alpha  occ. eigenvalues --   -5.94932  -5.94378  -5.94376  -1.05780  -1.05162
 Alpha  occ. eigenvalues --   -0.91234  -0.90309  -0.86508  -0.83576  -0.78472
 Alpha  occ. eigenvalues --   -0.78395  -0.78395  -0.73792  -0.72007  -0.69381
 Alpha  occ. eigenvalues --   -0.66649  -0.62096  -0.61996  -0.59785  -0.59335
 Alpha  occ. eigenvalues --   -0.55250  -0.51771  -0.50849  -0.49686  -0.49679
 Alpha  occ. eigenvalues --   -0.47730  -0.46225  -0.46168  -0.45548  -0.45041
 Alpha  occ. eigenvalues --   -0.44771  -0.43236  -0.43176  -0.43102  -0.40928
 Alpha  occ. eigenvalues --   -0.38853  -0.38637  -0.38468  -0.38320  -0.38140
 Alpha  occ. eigenvalues --   -0.36839  -0.36163  -0.35236  -0.32898  -0.29256
 Alpha  occ. eigenvalues --   -0.28675  -0.28022  -0.27966  -0.25157  -0.24973
 Alpha  occ. eigenvalues --   -0.22842
 Alpha virt. eigenvalues --   -0.11970  -0.06467  -0.03695  -0.03479  -0.03354
 Alpha virt. eigenvalues --   -0.01722  -0.00326  -0.00022   0.00910   0.01494
 Alpha virt. eigenvalues --    0.01916   0.02457   0.02577   0.02956   0.03589

 Mulliken charges:
               1
     1  C    0.684608
     2  C   -0.738211
     3  C   -0.400125
     4  C    0.060770
     5  C   -0.262816
     6  C   -0.064008
     7  C    0.340769
     8  C    0.198246
     9  H    0.194388
    10  H    0.190046
    11  H    0.191585
    12  H    0.220030
    13  C    0.198246
    14  C    0.340769
    15  C    0.684608
    16  C   -0.738211
    17  C   -0.064008
    18  C   -0.400125
    19  C   -0.262816
    20  H    0.220030
    21  C    0.060770
    22  H    0.194388
    23  H    0.191585
    24  H    0.190046
    25  S   -0.204400
    26  S   -0.204400
    27  O   -0.410884
    28  O   -0.410884
 Sum of Mulliken charges =   0.00000

 Dipole moment (field-independent basis, Debye):
    X=              0.0000    Y=              0.0000    Z=             -3.7402  Tot=              3.7402
 Quadrupole moment (field-independent basis, Debye-Ang):
   XX=           -133.5100   YY=            -85.3015   ZZ=           -132.8269
   XY=              1.8857   XZ=              0.0000   YZ=              0.0000

  Exact polarizability: 111.225   6.534 441.634   0.000   0.000 227.019
 Approx polarizability: 179.315   9.091 597.593   0.000   0.000 453.767

                      1                      2                      3
                      A                      B                      A
 Frequencies --     20.0897                21.6328                58.7910
 Red. masses --     10.1565                 7.2359                 9.4879
 Frc consts  --      0.0024                 0.0020                 0.0193
 IR Inten    --      0.2160                 2.4860                 0.0881
 Raman Activ --      0.6372                 0.0217                 1.0996

                      4                      5                      6
                      A                      A                      B
 Frequencies --     90.0221               127.2846               128.5193
 Red. masses --      6.9372                 5.1980                 5.3374
 Frc consts  --      0.0331                 0.0496                 0.0519
 IR Inten    --      1.5016                 0.0161                 1.3419
 Raman Activ --      0.3720                 1.1658                 2.2396

                      7                      8                      9
                      B                      A                      B
 Frequencies --    202.9872               204.7362               211.3637
 Red. masses --      6.2788                 6.4882                 8.5600
 Frc consts  --      0.1524                 0.1602                 0.2253
 IR Inten    --      0.4362                 0.0160                 0.3567
 Raman Activ --      0.3319                 3.7679                 0.7316

                     10                     11                     12
                      A                      B                      B
 Frequencies --    215.3075               257.9197               277.6750
 Red. masses --      9.2337                10.3031                10.0200
 Frc consts  --      0.2522                 0.4038                 0.4552
 IR Inten    --      0.7162                 5.0174                 9.6525
 Raman Activ --     22.6406                 0.2715                 1.1861

                     13                     14                     15
                      A                      A                      B
 Frequencies --    302.7217               411.3990               422.5708
 Red. masses --      8.1764                 3.7565                 3.2153
 Frc consts  --      0.4415                 0.3746                 0.3383
 IR Inten    --      0.2829                 0.0378                 3.4650
 Raman Activ --      0.3595                 0.6021                 0.0664

                     16                     17                     18
                      B                      A                      A
 Frequencies --    432.0355               432.8557               470.3330
 Red. masses --     11.4337                10.7428                 5.4010
 Frc consts  --      1.2574                 1.1859                 0.7039
 IR Inten    --     28.0100                 1.6973                 0.0264
 Raman Activ --      2.8987                20.0135                 2.8498

                     19                     20                     21
                      B                      A                      B
 Frequencies --    479.5331               486.5633               494.4850
 Red. masses --     11.4012                10.5769                 4.3471
 Frc consts  --      1.5447                 1.4753                 0.6263
 IR Inten    --      5.4675                 0.3082                 7.3817
 Raman Activ --      1.2721                57.4054                 0.0226

                     22                     23                     24
                      A                      B                      A
 Frequencies --    517.5947               526.8086               541.5501
 Red. masses --      5.7116                 9.9609                 9.6766
 Frc consts  --      0.9015                 1.6287                 1.6721
 IR Inten    --      0.0000                36.7715                 0.0567
 Raman Activ --     10.8392                 1.9059                 6.9148

                     25                     26                     27
                      B                      A                      B
 Frequencies --    627.9138               675.4243               681.6690
 Red. masses --      9.3282                 7.3214                 5.2621
 Frc consts  --      2.1669                 1.9679                 1.4407
 IR Inten    --     38.7776                 1.4688                12.0779
 Raman Activ --      0.7040                19.3852                 0.2483

                     28                     29                     30
                      A                      B                      A
 Frequencies --    698.3296               708.3907               724.9984
 Red. masses --      5.2347                 6.7898                 7.6477
 Frc consts  --      1.5040                 2.0075                 2.3684
 IR Inten    --      0.1362                11.0220                 0.1455
 Raman Activ --      1.9571                 8.0098                 4.9482

                     31                     32                     33
                      B                      A                      B
 Frequencies --    747.6484               751.3960               777.9865
 Red. masses --      2.0279                 1.6460                 6.6139
 Frc consts  --      0.6679                 0.5475                 2.3586
 IR Inten    --    103.5970                 0.5649                34.5951
 Raman Activ --      0.1593                 3.2486                 4.0115

                     34                     35                     36
                      B                      A                      A
 Frequencies --    786.7848               799.0663               840.2591
 Red. masses --      2.1828                 2.8533                 9.0291
 Frc consts  --      0.7961                 1.0734                 3.7560
 IR Inten    --     33.9495                 0.0331                 5.6401
 Raman Activ --      0.0460                 6.8011                96.5081

                     37                     38                     39
                      B                      A                      B
 Frequencies --    880.9897               881.1315               970.9191
 Red. masses --      1.3341                 1.3393                 1.3749
 Frc consts  --      0.6101                 0.6126                 0.7637
 IR Inten    --      0.0141                 0.0052                 1.7875
 Raman Activ --      0.0932                 0.6216                 0.0065

                     40                     41                     42
                      A                      A                      B
 Frequencies --    971.1286               982.6016               983.2739
 Red. masses --      1.3766                 9.6265                10.1806
 Frc consts  --      0.7649                 5.4762                 5.7992
 IR Inten    --      0.0001                 1.1590                 0.5850
 Raman Activ --      0.5070                 5.5854                 0.9031

                     43                     44                     45
                      B                      A                      B
 Frequencies --   1002.2893              1002.3179              1043.6197
 Red. masses --      1.3079                 1.3082                 2.8918
 Frc consts  --      0.7742                 0.7744                 1.8556
 IR Inten    --      0.0534                 0.0000               116.7384
 Raman Activ --      0.1528                 0.0776                10.7495

                     46                     47                     48
                      A                      B                      A
 Frequencies --   1046.5259              1070.5742              1084.6416
 Red. masses --      2.5395                 4.6718                 3.6159
 Frc consts  --      1.6387                 3.1548                 2.5063
 IR Inten    --      0.0725               578.6514                 4.0739
 Raman Activ --    175.4844                76.1027                15.7587

                     49                     50                     51
                      B                      A                      B
 Frequencies --   1092.5932              1141.9894              1142.6162
 Red. masses --      4.7808                 1.7099                 1.7089
 Frc consts  --      3.3626                 1.3138                 1.3145
 IR Inten    --      0.5037                 0.0273                 0.2818
 Raman Activ --      0.0087                47.9280                 3.4425

                     52                     53                     54
                      A                      B                      A
 Frequencies --   1191.1218              1191.4983              1231.2662
 Red. masses --      1.1668                 1.1632                 2.6699
 Frc consts  --      0.9753                 0.9729                 2.3848
 IR Inten    --      5.0679                11.1475                 6.7438
 Raman Activ --      9.9724                 0.1591               210.6716

                     55                     56                     57
                      B                      A                      B
 Frequencies --   1233.9252              1305.9943              1306.6663
 Red. masses --      2.7116                 1.6964                 1.7172
 Frc consts  --      2.4325                 1.7048                 1.7274
 IR Inten    --    142.6156                 0.0811               233.7582
 Raman Activ --      5.1529               137.2152                 1.5686

                     58                     59                     60
                      A                      B                      A
 Frequencies --   1362.6506              1363.8376              1491.5622
 Red. masses --      6.5733                 6.5608                 2.3106
 Frc consts  --      7.1912                 7.1900                 3.0287
 IR Inten    --      3.6800                 8.4818                 3.8315
 Raman Activ --    192.3843                15.6564                86.7107

                     61                     62                     63
                      B                      B                      A
 Frequencies --   1491.6608              1497.8331              1498.3253
 Red. masses --      2.2900                 2.3703                 2.3485
 Frc consts  --      3.0021                 3.1331                 3.1064
 IR Inten    --    120.9586                12.2982                 3.8169
 Raman Activ --      1.3852                12.2855                 8.8612

                     64                     65                     66
                      A                      B                      A
 Frequencies --   1558.6984              1628.4908              1631.1066
 Red. masses --     10.9761                 6.4865                 6.5762
 Frc consts  --     15.7117                10.1352                10.3084
 IR Inten    --    200.1261                18.0323                 0.0011
 Raman Activ --   2246.3839                 3.3052                12.0133

                     67                     68                     69
                      B                      A                      B
 Frequencies --   1636.1155              1639.5893              1742.5326
 Red. masses --      5.8893                 6.0747                13.0606
 Frc consts  --      9.2884                 9.6216                23.3654
 IR Inten    --    224.5312                 0.2108                21.2612
 Raman Activ --     82.4066                34.5386                73.2079

                     70                     71                     72
                      A                     ?A                     ?A
 Frequencies --   1774.9452              3189.1289              3189.1289
 Red. masses --     13.0117                 1.0865                 1.0865
 Frc consts  --     24.1521                 6.5106                 6.5105
 IR Inten    --    255.8066                 0.5941                 2.4894
 Raman Activ --    220.8592                48.5164                74.4563

                     73                     74                     75
                      B                      A                      B
 Frequencies --   3201.1852              3201.1963              3208.2711
 Red. masses --      1.0896                 1.0896                 1.0936
 Frc consts  --      6.5785                 6.5785                 6.6322
 IR Inten    --      2.8776                 8.4039                14.2748
 Raman Activ --     85.6346               173.6220               102.7742

                     76                     77                     78
                      A                      B                      A
 Frequencies --   3208.3055              3216.7701              3216.8747
 Red. masses --      1.0936                 1.0964                 1.0964
 Frc consts  --      6.6322                 6.6842                 6.6848
 IR Inten    --     11.8044                41.7515                 1.0432
 Raman Activ --    242.7589                40.0474               701.6725

 - Thermochemistry -
 -------------------
 Temperature   298.150 Kelvin.  Pressure   1.00000 Atm.
 Atom     1 has atomic number  6 and mass  12.00000

 Molecular mass:   295.99657 amu.
 Principal axes and moments of inertia in atomic units:
                           1         2         3
     EIGENVALUES --  1916.19705********************
           X            0.01502   0.00000   0.99989
           Y            0.99989   0.00000  -0.01502
           Z            0.00000   1.00000   0.00000
 This molecule is an asymmetric top.
 Rotational symmetry number  2.
 Warning -- assumption of classical behavior for rotation
           may cause significant error
 Rotational temperatures (Kelvin)      0.04520     0.00729     0.00629
 Rotational constants (GHZ):           0.94183     0.15194     0.13103
 Zero-point vibrational energy     507578.7 (Joules/Mol)
                                  121.31423 (Kcal/Mol)
 Warning -- explicit consideration of  24 degrees of freedom as
           vibrations may cause significant error
 Vibrational temperatures:     28.90    31.12    84.59   129.52   183.13
          (Kelvin)            184.91   292.05   294.57   304.10   309.78
                              371.09   399.51   435.55   591.91   607.98
                              621.60   622.78   676.70   689.94   700.06
                              711.45   744.70   757.96   779.17   903.43
                              971.78   980.77  1004.74  1019.21  1043.11
                             1075.70  1081.09  1119.35  1132.01  1149.68
                             1208.94  1267.55  1267.75  1396.93  1397.24
                             1413.74  1414.71  1442.07  1442.11  1501.53
                             1505.72  1540.32  1560.56  1572.00  1643.07
                             1643.97  1713.76  1714.30  1771.52  1775.34
                             1879.03  1880.00  1960.55  1962.26  2146.02
                             2146.16  2155.05  2155.75  2242.62  2343.03
                             2346.80  2354.00  2359.00  2507.11  2553.75
                             4588.44  4588.44  4605.79  4605.80  4615.98
                             4616.03  4628.21  4628.36

 Zero-point correction=                           0.193327 (Hartree/Particle)
 Thermal correction to Energy=                    0.209018
 Thermal correction to Enthalpy=                  0.209962
 Thermal correction to Gibbs Free Energy=         0.148752
 Sum of electronic and zero-point Energies=          -1561.172929
 Sum of electronic and thermal Energies=             -1561.157238
 Sum of electronic and thermal Enthalpies=           -1561.156293
 Sum of electronic and thermal Free Energies=        -1561.217503

                     E (Thermal)             CV                S
                      KCal/Mol        Cal/Mol-Kelvin    Cal/Mol-Kelvin
 Total                  131.161             61.138            128.827
 Electronic               0.000              0.000              0.000
 Translational            0.889              2.981             42.953
 Rotational               0.889              2.981             32.727
 Vibrational            129.383             55.176             53.147
 Vibration     1          0.593              1.986              6.625
 Vibration     2          0.593              1.985              6.478
 Vibration     3          0.596              1.974              4.497
 Vibration     4          0.602              1.956              3.660
 Vibration     5          0.611              1.926              2.987
 Vibration     6          0.611              1.925              2.968
 Vibration     7          0.639              1.836              2.106
 Vibration     8          0.640              1.833              2.090
 Vibration     9          0.643              1.824              2.032
 Vibration    10          0.645              1.818              1.998
 Vibration    11          0.667              1.749              1.676
 Vibration    12          0.679              1.715              1.548
 Vibration    13          0.694              1.669              1.402
 Vibration    14          0.775              1.445              0.922
 Vibration    15          0.785              1.421              0.883
 Vibration    16          0.793              1.400              0.852
 Vibration    17          0.794              1.399              0.849
 Vibration    18          0.827              1.316              0.737
 Vibration    19          0.836              1.295              0.711
 Vibration    20          0.843              1.280              0.693
 Vibration    21          0.850              1.262              0.672
 Vibration    22          0.873              1.211              0.616
 Vibration    23          0.882              1.191              0.594
 Vibration    24          0.897              1.158              0.562

 Optimization completed.
    -- Stationary point found.
 Normal termination of Gaussian 03 at Tue Feb 24 09:23:06 2015.
