 Gaussian 03, Revision D.01,
 Gaussian 03:  AM64L-G09RevD.01 24-Apr-2013

 ----------------------------------------------------------------------
 #p opt=tight freq=raman rb3lyp/6-31+g(d) guess=read geom=connectivity
 int=ultrafine
 ----------------------------------------------------------------------

 -------------------
 Title Card Required
 -------------------
 Symbolic Z-matrix:
 Charge =  0 Multiplicity = 1

 SCF Done:  E(RB3LYP) =  -1561.37965063     A.U. after   15 cycles
 SCF Done:  E(RB3LYP) =  -1561.38553015     A.U. after   13 cycles
 SCF Done:  E(RB3LYP) =  -1561.38586735     A.U. after   12 cycles
 SCF Done:  E(RB3LYP) =  -1561.38591376     A.U. after   11 cycles
 SCF Done:  E(RB3LYP) =  -1561.38591429     A.U. after    9 cycles
 SCF Done:  E(RB3LYP) =  -1561.38591389     A.U. after   10 cycles
 SCF Done:  E(RB3LYP) =  -1561.38591447     A.U. after   10 cycles
 SCF Done:  E(RB3LYP) =  -1561.38591447     A.U. after    7 cycles
 SCF Done:  E(RB3LYP) =  -1561.38591447     A.U. after    7 cycles
 SCF Done:  E(RB3LYP) =  -1561.38591448     A.U. after    7 cycles
 Optimization completed.
    -- Stationary point found.
 Normal termination of Gaussian 03 at Tue Feb 24 11:58:39 2015.

 ---------------------------------------------------------------------
 #P Geom=AllCheck Guess=TCheck SCRF=Check GenChk RB3LYP/6-31+G(d) Freq
 ---------------------------------------------------------------------

 Structure from the checkpoint file:  "Gr_Trans_again.chk"
 -------------------
 Title Card Required
 -------------------
 Charge =  0 Multiplicity = 1

                         Standard orientation:
 ---------------------------------------------------------------------
 Center     Atomic      Atomic             Coordinates (Angstroms)
 Number     Number       Type             X           Y           Z
 ---------------------------------------------------------------------
      1          6           0        3.003617   -0.641223   -0.000001
      2          6           0        3.107905    0.757541   -0.000001
      3          6           0        4.357788    1.377073    0.000000
      4          6           0        5.499174    0.568760    0.000000
      5          6           0        5.401976   -0.832288    0.000000
      6          6           0        4.149613   -1.443936    0.000000
      7          6           0        1.608594   -1.105470   -0.000001
      8          6           0        0.676270    0.067942   -0.000001
      9          1           0        4.447410    2.459974    0.000000
     10          1           0        6.479675    1.038084    0.000001
     11          1           0        6.304479   -1.436636    0.000001
     12          1           0        4.042959   -2.525246    0.000000
     13          6           0       -0.676270   -0.067942    0.000001
     14          6           0       -1.608594    1.105470    0.000001
     15          6           0       -3.003617    0.641223    0.000001
     16          6           0       -3.107905   -0.757541    0.000001
     17          6           0       -4.149613    1.443936    0.000000
     18          6           0       -4.357788   -1.377073    0.000000
     19          6           0       -5.401976    0.832288    0.000000
     20          1           0       -4.042959    2.525246    0.000000
     21          6           0       -5.499174   -0.568760    0.000000
     22          1           0       -4.447410   -2.459974    0.000000
     23          1           0       -6.304479    1.436636   -0.000001
     24          1           0       -6.479675   -1.038084   -0.000001
     25         16           0        1.536214    1.608486   -0.000003
     26         16           0       -1.536214   -1.608486    0.000002
     27          8           0       -1.210667    2.267132    0.000003
     28          8           0        1.210667   -2.267132   -0.000003
 ---------------------------------------------------------------------

 SCF Done:  E(RB3LYP) =  -1561.38591448     A.U. after    1 cycles

 The electronic state is 1-A.
 Alpha  occ. eigenvalues --  -88.92678 -88.92678 -19.16513 -19.16513 -10.29921
 Alpha  occ. eigenvalues --  -10.29921 -10.25848 -10.25775 -10.24932 -10.24932
 Alpha  occ. eigenvalues --  -10.22511 -10.22511 -10.22275 -10.22275 -10.22232
 Alpha  occ. eigenvalues --  -10.22232 -10.21972 -10.21972 -10.21605 -10.21604
 Alpha  occ. eigenvalues --   -7.98423  -7.98423  -5.94905  -5.94903  -5.94551
 Alpha  occ. eigenvalues --   -5.94551  -5.94009  -5.94009  -1.06082  -1.05885
 Alpha  occ. eigenvalues --   -0.90897  -0.90253  -0.86294  -0.83669  -0.78467
 Alpha  occ. eigenvalues --   -0.78432  -0.78303  -0.74052  -0.71353  -0.70082
 Alpha  occ. eigenvalues --   -0.66618  -0.62187  -0.61309  -0.61100  -0.58293
 Alpha  occ. eigenvalues --   -0.55266  -0.51175  -0.51159  -0.50111  -0.49690
 Alpha  occ. eigenvalues --   -0.47757  -0.46457  -0.46106  -0.45585  -0.45512
 Alpha  occ. eigenvalues --   -0.44543  -0.44247  -0.43436  -0.42659  -0.40465
 Alpha  occ. eigenvalues --   -0.38941  -0.38774  -0.38642  -0.38403  -0.38343
 Alpha  occ. eigenvalues --   -0.36264  -0.35481  -0.35188  -0.33081  -0.29075
 Alpha  occ. eigenvalues --   -0.28280  -0.28147  -0.28097  -0.27155  -0.25025
 Alpha  occ. eigenvalues --   -0.22410
 Alpha virt. eigenvalues --   -0.12421  -0.06475  -0.03342  -0.03099  -0.01755
 Alpha virt. eigenvalues --   -0.00993  -0.00398   0.00666   0.00737   0.01435
 Alpha virt. eigenvalues --    0.02034   0.02667   0.02908   0.03390   0.03812

 Mulliken charges:
               1
     1  C    0.598288
     2  C   -0.756503
     3  C   -0.481304
     4  C    0.004801
     5  C   -0.271102
     6  C   -0.100616
     7  C    0.444948
     8  C    0.182220
     9  H    0.196748
    10  H    0.190387
    11  H    0.191338
    12  H    0.216141
    13  C    0.182219
    14  C    0.444948
    15  C    0.598288
    16  C   -0.756503
    17  C   -0.100616
    18  C   -0.481304
    19  C   -0.271102
    20  H    0.216141
    21  C    0.004801
    22  H    0.196748
    23  H    0.191338
    24  H    0.190387
    25  S    0.035324
    26  S    0.035324
    27  O   -0.450668
    28  O   -0.450668
 Sum of Mulliken charges =   0.00000

 Dipole moment (field-independent basis, Debye):
    X=              0.0000    Y=              0.0000    Z=              0.0000  Tot=              0.0000
 Quadrupole moment (field-independent basis, Debye-Ang):
   XX=            -85.3583   YY=           -132.8157   ZZ=           -133.1417
   XY=              5.3092   XZ=              0.0000   YZ=              0.0000

  Exact polarizability: 466.148   2.376 224.778   0.000   0.000 109.883
 Approx polarizability: 653.204  13.209 444.727   0.000   0.000 176.879

                      1                      2                      3
                      A                      A                      A
 Frequencies --     28.5110                74.0226                77.8613
 Red. masses --      7.0226                 5.8274                 7.0353
 Frc consts  --      0.0034                 0.0188                 0.0251
 IR Inten    --      2.3109                 0.9599                 2.9912
 Raman Activ --      0.0000                 0.0000                 0.0000

                      4                      5                      6
                      A                      A                      A
 Frequencies --     90.5289               137.7294               152.9513
 Red. masses --      9.1251                 5.1785                 7.2330
 Frc consts  --      0.0441                 0.0579                 0.0997
 IR Inten    --      0.0000                 0.0000                 2.6887
 Raman Activ --      1.8974                 2.7653                 0.0000

                      7                      8                      9
                      A                      A                      A
 Frequencies --    203.2302               212.6725               229.5859
 Red. masses --      9.9913                 6.2320                 6.7533
 Frc consts  --      0.2431                 0.1661                 0.2097
 IR Inten    --      0.0000                 1.4384                 0.0000
 Raman Activ --      6.3706                 0.0000                 4.8007

                     10                     11                     12
                      A                      A                      A
 Frequencies --    230.4750               269.1317               281.9811
 Red. masses --      7.2845                11.9893                 8.1490
 Frc consts  --      0.2280                 0.5117                 0.3818
 IR Inten    --      0.0000                 1.3888                15.3988
 Raman Activ --      3.1772                 0.0000                 0.0000

                     13                     14                     15
                      A                      A                      A
 Frequencies --    304.8544               406.0230               424.5713
 Red. masses --     12.0235                 4.2377                10.6199
 Frc consts  --      0.6584                 0.4116                 1.1279
 IR Inten    --      0.0000                 0.0000                23.4393
 Raman Activ --     11.9819                 0.9993                 0.0000

                     16                     17                     18
                      A                      A                      A
 Frequencies --    424.8974               444.8675               461.5095
 Red. masses --      3.1709                14.0647                 4.7938
 Frc consts  --      0.3373                 1.6400                 0.6016
 IR Inten    --      4.2440                 0.0000                 0.0000
 Raman Activ --      0.0000                38.7801                 2.9342

                     19                     20                     21
                      A                      A                      A
 Frequencies --    487.5578               492.1681               504.7033
 Red. masses --     10.9131                11.4333                 4.1634
 Frc consts  --      1.5284                 1.6317                 0.6248
 IR Inten    --      2.5508                 0.0000                 7.6779
 Raman Activ --      0.0000                98.6934                 0.0000

                     22                     23                     24
                      A                      A                      A
 Frequencies --    514.0260               539.8751               541.7984
 Red. masses --      4.8257                10.6905                 9.5581
 Frc consts  --      0.7512                 1.8358                 1.6531
 IR Inten    --      0.0000                46.5658                 0.0000
 Raman Activ --      1.2518                 0.0000                13.9802

                     25                     26                     27
                      A                      A                      A
 Frequencies --    605.3180               686.1546               696.8704
 Red. masses --      9.3942                 6.7987                 5.2255
 Frc consts  --      2.0280                 1.8859                 1.4951
 IR Inten    --      9.9539                 0.0000                10.5669
 Raman Activ --      0.0000                18.7267                 0.0000

                     28                     29                     30
                      A                      A                      A
 Frequencies --    701.4785               703.7075               728.9164
 Red. masses --      5.4235                 6.7840                 7.4429
 Frc consts  --      1.5724                 1.9794                 2.3300
 IR Inten    --      0.0000                20.6628                 0.0000
 Raman Activ --      0.3365                 0.0000                28.6223

                     31                     32                     33
                      A                      A                      A
 Frequencies --    750.4069               754.7559               787.9463
 Red. masses --      1.7234                 1.5813                 7.1143
 Frc consts  --      0.5718                 0.5307                 2.6024
 IR Inten    --    118.7253                 0.0000                17.0016
 Raman Activ --      0.0000                 2.1505                 0.0000

                     34                     35                     36
                      A                      A                      A
 Frequencies --    797.3151               797.8030               881.7929
 Red. masses --      2.6621                 3.1093                 1.3390
 Frc consts  --      0.9971                 1.1660                 0.6134
 IR Inten    --     19.5189                 0.0000                 0.0000
 Raman Activ --      0.0000                 1.3021                 0.6822

                     37                     38                     39
                      A                      A                      A
 Frequencies --    882.1895               891.5175               937.3785
 Red. masses --      1.3412                12.3914                 8.4867
 Frc consts  --      0.6150                 5.8027                 4.3936
 IR Inten    --      0.0145               190.3709                 0.0000
 Raman Activ --      0.0000                 0.0000                14.2120

                     40                     41                     42
                      A                      A                      A
 Frequencies --    970.6938               970.9769              1001.7004
 Red. masses --      1.3761                 1.3784                 1.3075
 Frc consts  --      0.7640                 0.7657                 0.7730
 IR Inten    --      0.0000                 1.5742                 0.0160
 Raman Activ --      0.5076                 0.0000                 0.0000

                     43                     44                     45
                      A                      A                      A
 Frequencies --   1001.7699              1043.4857              1044.6276
 Red. masses --      1.3080                 2.6914                 2.6813
 Frc consts  --      0.7734                 1.7267                 1.7239
 IR Inten    --      0.0000                54.9048                 0.0000
 Raman Activ --      0.1348                 0.0000               207.3325

                     46                     47                     48
                      A                      A                      A
 Frequencies --   1066.1466              1085.9563              1095.9870
 Red. masses --      8.4809                 3.3598                 3.3678
 Frc consts  --      5.6797                 2.3345                 2.3835
 IR Inten    --     43.8588                 0.0000               372.9770
 Raman Activ --      0.0000                36.5193                 0.0000

                     49                     50                     51
                      A                      A                      A
 Frequencies --   1136.0663              1141.9051              1142.5779
 Red. masses --      4.5335                 1.6736                 2.1525
 Frc consts  --      3.4474                 1.2857                 1.6556
 IR Inten    --      0.0000                 4.1743                 0.0000
 Raman Activ --     12.1345                 0.0000                71.8316

                     52                     53                     54
                      A                      A                      A
 Frequencies --   1192.3623              1192.8645              1241.0114
 Red. masses --      1.1599                 1.1634                 2.5153
 Frc consts  --      0.9716                 0.9754                 2.2824
 IR Inten    --      0.0000                 9.6658                 0.0000
 Raman Activ --     17.1727                 0.0000               202.5568

                     55                     56                     57
                      A                      A                      A
 Frequencies --   1246.5089              1315.3741              1316.6508
 Red. masses --      2.5001                 1.8742                 1.9358
 Frc consts  --      2.2887                 1.9106                 1.9772
 IR Inten    --    148.3765                 0.0000               312.0424
 Raman Activ --      0.0000               351.4093                 0.0000

                     58                     59                     60
                      A                      A                      A
 Frequencies --   1362.2094              1362.6879              1491.1706
 Red. masses --      6.1607                 6.1747                 2.2587
 Frc consts  --      6.7354                 6.7556                 2.9592
 IR Inten    --      0.0000                25.5389               148.8283
 Raman Activ --    233.2714                 0.0000                 0.0000

                     61                     62                     63
                      A                      A                      A
 Frequencies --   1492.4629              1495.8653              1496.1862
 Red. masses --      2.2638                 2.4321                 2.4296
 Frc consts  --      2.9709                 3.2063                 3.2045
 IR Inten    --      0.0000                 0.0000                16.7105
 Raman Activ --     77.3242               110.9987                 0.0000

                     64                     65                     66
                      A                      A                      A
 Frequencies --   1573.3266              1621.9358              1625.8976
 Red. masses --     10.3153                 6.1865                 6.4692
 Frc consts  --     15.0443                 9.5888                10.0759
 IR Inten    --      0.0000                18.7163                 0.0000
 Raman Activ --   3058.7982                 0.0000                56.9983

                     67                     68                     69
                      A                      A                      A
 Frequencies --   1637.7844              1642.2848              1715.0625
 Red. masses --      5.8742                 6.0808                12.9230
 Frc consts  --      9.2835                 9.6630                22.3962
 IR Inten    --    279.0427                 0.0000               300.6674
 Raman Activ --      0.0000               173.1224                 0.0000

                     70                     71                     72
                      A                      A                      A
 Frequencies --   1738.7771              3188.1912              3188.2009
 Red. masses --     12.8706                 1.0865                 1.0865
 Frc consts  --     22.9265                 6.5068                 6.5069
 IR Inten    --      0.0000                 0.0000                 2.9903
 Raman Activ --    370.7128               117.6032                 0.0000

                     73                     74                     75
                      A                      A                      A
 Frequencies --   3200.1003              3200.1079              3206.8134
 Red. masses --      1.0894                 1.0894                 1.0935
 Frc consts  --      6.5730                 6.5730                 6.6253
 IR Inten    --      8.3914                 0.0000                28.0173
 Raman Activ --      0.0000               255.0341                 0.0000

                     76                     77                     78
                      A                      A                      A
 Frequencies --   3206.8338              3216.0610              3216.1814
 Red. masses --      1.0935                 1.0966                 1.0966
 Frc consts  --      6.6253                 6.6827                 6.6833
 IR Inten    --      0.0000                48.7400                 0.0000
 Raman Activ --    369.8011                 0.0000               797.8814

 - Thermochemistry -
 -------------------
 Temperature   298.150 Kelvin.  Pressure   1.00000 Atm.
 Atom     1 has atomic number  6 and mass  12.00000

 Molecular mass:   295.99657 amu.
 Principal axes and moments of inertia in atomic units:
                           1         2         3
     EIGENVALUES --  1907.88606********************
           X            1.00000  -0.00113   0.00000
           Y            0.00113   1.00000   0.00000
           Z            0.00000   0.00000   1.00000
 This molecule is an asymmetric top.
 Rotational symmetry number  1.
 Warning -- assumption of classical behavior for rotation
           may cause significant error
 Rotational temperatures (Kelvin)      0.04540     0.00746     0.00641
 Rotational constants (GHZ):           0.94594     0.15541     0.13348
 Zero-point vibrational energy     509752.1 (Joules/Mol)
                                  121.83367 (Kcal/Mol)
 Warning -- explicit consideration of  25 degrees of freedom as
           vibrations may cause significant error
 Vibrational temperatures:     41.02   106.50   112.02   130.25   198.16
          (Kelvin)            220.06   292.40   305.99   330.32   331.60
                              387.22   405.71   438.62   584.18   610.86
                              611.33   640.06   664.01   701.49   708.12
                              726.15   739.57   776.76   779.53   870.92
                              987.22  1002.64  1009.27  1012.48  1048.75
                             1079.67  1085.92  1133.68  1147.16  1147.86
                             1268.70  1269.27  1282.69  1348.68  1396.61
                             1397.02  1441.22  1441.32  1501.34  1502.98
                             1533.95  1562.45  1576.88  1634.54  1642.94
                             1643.91  1715.54  1716.26  1785.54  1793.45
                             1892.53  1894.36  1959.91  1960.60  2145.46
                             2147.32  2152.21  2152.68  2263.66  2333.60
                             2339.30  2356.40  2362.88  2467.59  2501.71
                             4587.09  4587.10  4604.22  4604.24  4613.88
                             4613.91  4627.19  4627.36

 Zero-point correction=                           0.194154 (Hartree/Particle)
 Thermal correction to Energy=                    0.209480
 Thermal correction to Enthalpy=                  0.210424
 Thermal correction to Gibbs Free Energy=         0.150851
 Sum of electronic and zero-point Energies=          -1561.191760
 Sum of electronic and thermal Energies=             -1561.176435
 Sum of electronic and thermal Enthalpies=           -1561.175491
 Sum of electronic and thermal Free Energies=        -1561.235063

                     E (Thermal)             CV                S
                      KCal/Mol        Cal/Mol-Kelvin    Cal/Mol-Kelvin
 Total                  131.450             60.686            125.381
 Electronic               0.000              0.000              0.000
 Translational            0.889              2.981             42.953
 Rotational               0.889              2.981             34.059
 Vibrational            129.673             54.724             48.369
 Vibration     1          0.593              1.984              5.930
 Vibration     2          0.599              1.966              4.043
 Vibration     3          0.599              1.964              3.944
 Vibration     4          0.602              1.956              3.649
 Vibration     5          0.614              1.916              2.835
 Vibration     6          0.619              1.899              2.635
 Vibration     7          0.639              1.835              2.104
 Vibration     8          0.644              1.822              2.021
 Vibration     9          0.652              1.796              1.882
 Vibration    10          0.652              1.794              1.875
 Vibration    11          0.674              1.730              1.602
 Vibration    12          0.681              1.707              1.522
 Vibration    13          0.696              1.664              1.390
 Vibration    14          0.771              1.457              0.941
 Vibration    15          0.787              1.417              0.877
 Vibration    16          0.787              1.416              0.875
 Vibration    17          0.804              1.372              0.811
 Vibration    18          0.819              1.335              0.762
 Vibration    19          0.844              1.278              0.690
 Vibration    20          0.848              1.267              0.678
 Vibration    21          0.860              1.240              0.646
 Vibration    22          0.869              1.219              0.624
 Vibration    23          0.895              1.162              0.566
 Vibration    24          0.897              1.158              0.561
 Vibration    25          0.964              1.021              0.441

 Optimization completed.
    -- Stationary point found.
 Normal termination of Gaussian 03 at Tue Feb 24 12:47:13 2015.
